<?xml version="1.0" encoding="UTF-8"?>

<!-- generated on 2022-06-24 05:44:31 by Eclipse SUMO GUI Version 1.13.0
<configuration xmlns:xsi="http://www.w3.org/2001/XMLSchema-instance" xsi:noNamespaceSchemaLocation="http://sumo.dlr.de/xsd/sumoConfiguration.xsd">

    <input>
        <net-file value="platoon2.net.xml"/>
        <route-files value="platoon2.rou.xml"/>
    </input>

    <output>
        <tripinfo-output value="&#45;&#45;tripinfo.xml"/>
    </output>

    <processing>
        <step-method.ballistic value="true"/>
    </processing>

    <traci_server>
        <remote-port value="62799"/>
    </traci_server>

</configuration>
-->

<tripinfos xmlns:xsi="http://www.w3.org/2001/XMLSchema-instance" xsi:noNamespaceSchemaLocation="http://sumo.dlr.de/xsd/tripinfo_file.xsd">
</tripinfos>
